
Host: WX400847

Timers On : Thu Apr 30 10:42:18 2026
Timers Off: Thu Apr 30 10:42:25 2026

Wall Time:        6.97 seconds

                                                       Time (seconds)
Module                                       User      System        Wall        Calls

--------------------------------------------------------------------------------------

**************************************************************************************

Host: WX400847

Timers On : Thu Apr 30 10:42:54 2026
Timers Off: Thu Apr 30 10:46:25 2026

Wall Time:      211.86 seconds

                                                       Time (seconds)
Module                                       User      System        Wall        Calls
V: Grid                             :      0.000u      0.000s      3.594w    106 calls
build grid                          :      0.000u      0.000s      2.096w    106 calls
post-process grid                   :      0.000u      0.000s      1.480w    106 calls
DFH: sparsity prep                  :      0.000u      0.000s      0.707w    106 calls
Libint2ERI::Libint2ERI              :      0.000u      0.000s      1.677w    742 calls
DFH: initialize()                   :      0.000u      0.000s      2.041w    106 calls
DFH: AO Construction                :      0.000u      0.000s      0.262w    106 calls
DFH: AO-Met. Contraction            :      0.000u      0.000s      0.033w    106 calls
HF: Form core H                     :      0.000u      0.000s      0.771w    106 calls
HF: Form S/X                        :      0.000u      0.000s      0.030w    106 calls
HF: Guess                           :      0.000u      0.000s      4.941w    106 calls
SAD Guess                           :      0.000u      0.000s      4.719w    106 calls
HF: Form G                          :      0.000u      0.000s    110.056w    859 calls
RV: Form V                          :      0.000u      0.000s    109.828w    859 calls
Properties                          :      0.000u      0.000s     18.344w 538704 calls
Functional                          :      0.000u      0.000s     99.064w 538704 calls
V_xc                                :      0.000u      0.000s     10.110w 479532 calls
JK: D                               :      0.000u      0.000s      0.009w    859 calls
JK: USO2AO                          :      0.000u      0.000s      0.008w    859 calls
JK: JK                              :      0.000u      0.000s      0.142w    859 calls
DFH: compute_JK()                   :      0.000u      0.000s      0.139w    859 calls
DFH: Grabbing AOs                   :      0.000u      0.000s      0.000w    859 calls
DFH: compute_J                      :      0.000u      0.000s      0.063w    859 calls
DFH: compute_K                      :      0.000u      0.000s      0.065w    859 calls
JK: AO2USO                          :      0.000u      0.000s      0.002w    859 calls
HF: Form F                          :      0.000u      0.000s      0.008w    859 calls
HF: Form D                          :      0.000u      0.000s      0.004w    859 calls
HF: DIIS                            :      0.000u      0.000s      7.374w    753 calls
HF: Form C                          :      0.000u      0.000s      0.485w    753 calls
Grad: V T Perturb                   :      0.000u      0.000s      0.043w    106 calls
Grad: S                             :      0.000u      0.000s      0.011w    106 calls
Grad: JK                            :      0.000u      0.000s      5.999w    106 calls
JKGrad: Amn                         :      0.000u      0.000s      1.291w    106 calls
JKGrad: Awmn                        :      0.000u      0.000s      0.000w    106 calls
JKGrad: AB                          :      0.000u      0.000s      0.684w    106 calls
JKGrad: UV                          :      0.000u      0.000s      0.027w    106 calls
JKGrad: ABx                         :      0.000u      0.000s      0.216w    106 calls
JKGrad: Amnx                        :      0.000u      0.000s      1.487w    106 calls
Grad: XC                            :      0.000u      0.000s     22.256w    106 calls
V_xc gradient                       :      0.000u      0.000s      3.406w  59172 calls

--------------------------------------------------------------------------------------
V: Grid                             :      0.000u      0.000s      3.594w    106 calls
| build grid                        :      0.000u      0.000s      2.096w    106 calls
| post-process grid                 :      0.000u      0.000s      1.480w    106 calls
DFH: sparsity prep                  :      0.000u      0.000s      0.707w    106 calls
| Libint2ERI::Libint2ERI            :      0.000u      0.000s      0.522w    106 calls
DFH: initialize()                   :      0.000u      0.000s      2.041w    106 calls
| Libint2ERI::Libint2ERI            :      0.000u      0.000s      0.346w    212 calls
| DFH: AO Construction              :      0.000u      0.000s      0.262w    106 calls
| DFH: AO-Met. Contraction          :      0.000u      0.000s      0.033w    106 calls
HF: Form core H                     :      0.000u      0.000s      0.771w    106 calls
HF: Form S/X                        :      0.000u      0.000s      0.030w    106 calls
HF: Guess                           :      0.000u      0.000s      4.941w    106 calls
| SAD Guess                         :      0.000u      0.000s      4.719w    106 calls
HF: Form G                          :      0.000u      0.000s    110.056w    859 calls
| RV: Form V                        :      0.000u      0.000s    109.828w    859 calls
| | Properties                      :      0.000u      0.000s     10.299w 479532 calls
| | Functional                      :      0.000u      0.000s     88.535w 479532 calls
| | V_xc                            :      0.000u      0.000s     10.110w 479532 calls
| JK: D                             :      0.000u      0.000s      0.009w    859 calls
| JK: USO2AO                        :      0.000u      0.000s      0.008w    859 calls
| JK: JK                            :      0.000u      0.000s      0.142w    859 calls
| | DFH: compute_JK()               :      0.000u      0.000s      0.139w    859 calls
| | | DFH: Grabbing AOs             :      0.000u      0.000s      0.000w    859 calls
| | | DFH: compute_J                :      0.000u      0.000s      0.063w    859 calls
| | | DFH: compute_K                :      0.000u      0.000s      0.065w    859 calls
| JK: AO2USO                        :      0.000u      0.000s      0.002w    859 calls
HF: Form F                          :      0.000u      0.000s      0.008w    859 calls
HF: Form D                          :      0.000u      0.000s      0.004w    859 calls
HF: DIIS                            :      0.000u      0.000s      7.374w    753 calls
HF: Form C                          :      0.000u      0.000s      0.485w    753 calls
Grad: V T Perturb                   :      0.000u      0.000s      0.043w    106 calls
Grad: S                             :      0.000u      0.000s      0.011w    106 calls
Grad: JK                            :      0.000u      0.000s      5.999w    106 calls
| JKGrad: Amn                       :      0.000u      0.000s      1.291w    106 calls
| | Libint2ERI::Libint2ERI          :      0.000u      0.000s      0.341w    106 calls
| JKGrad: Awmn                      :      0.000u      0.000s      0.000w    106 calls
| JKGrad: AB                        :      0.000u      0.000s      0.684w    106 calls
| | Libint2ERI::Libint2ERI          :      0.000u      0.000s      0.004w    106 calls
| JKGrad: UV                        :      0.000u      0.000s      0.027w    106 calls
| JKGrad: ABx                       :      0.000u      0.000s      0.216w    106 calls
| | Libint2ERI::Libint2ERI          :      0.000u      0.000s      0.004w    106 calls
| JKGrad: Amnx                      :      0.000u      0.000s      1.487w    106 calls
| | Libint2ERI::Libint2ERI          :      0.000u      0.000s      0.460w    106 calls
Grad: XC                            :      0.000u      0.000s     22.256w    106 calls
| Properties                        :      0.000u      0.000s      8.045w  59172 calls
| Functional                        :      0.000u      0.000s     10.529w  59172 calls
| V_xc gradient                     :      0.000u      0.000s      3.406w  59172 calls

**************************************************************************************

Host: WX400847

Timers On : Thu Apr 30 10:47:08 2026
Timers Off: Thu Apr 30 10:48:46 2026

Wall Time:       98.57 seconds

                                                       Time (seconds)
Module                                       User      System        Wall        Calls
V: Grid                             :      0.000u      0.000s      1.479w     49 calls
build grid                          :      0.000u      0.000s      0.913w     49 calls
post-process grid                   :      0.000u      0.000s      0.558w     49 calls
DFH: sparsity prep                  :      0.000u      0.000s      0.292w     49 calls
Libint2ERI::Libint2ERI              :      0.000u      0.000s      0.697w    339 calls
DFH: initialize()                   :      0.000u      0.000s      0.825w     49 calls
DFH: AO Construction                :      0.000u      0.000s      0.117w     49 calls
DFH: AO-Met. Contraction            :      0.000u      0.000s      0.016w     49 calls
HF: Form core H                     :      0.000u      0.000s      0.297w     49 calls
HF: Form S/X                        :      0.000u      0.000s      0.014w     49 calls
HF: Guess                           :      0.000u      0.000s      2.200w     49 calls
SAD Guess                           :      0.000u      0.000s      2.086w     49 calls
HF: Form G                          :      0.000u      0.000s     51.291w    403 calls
RV: Form V                          :      0.000u      0.000s     51.154w    403 calls
Properties                          :      0.000u      0.000s      8.239w 251845 calls
Functional                          :      0.000u      0.000s     46.063w 251845 calls
V_xc                                :      0.000u      0.000s      4.701w 225044 calls
JK: D                               :      0.000u      0.000s      0.002w    403 calls
JK: USO2AO                          :      0.000u      0.000s      0.007w    403 calls
JK: JK                              :      0.000u      0.000s      0.071w    403 calls
DFH: compute_JK()                   :      0.000u      0.000s      0.069w    403 calls
DFH: Grabbing AOs                   :      0.000u      0.000s      0.000w    403 calls
DFH: compute_J                      :      0.000u      0.000s      0.027w    403 calls
DFH: compute_K                      :      0.000u      0.000s      0.029w    403 calls
JK: AO2USO                          :      0.000u      0.000s      0.003w    403 calls
HF: Form F                          :      0.000u      0.000s      0.007w    403 calls
HF: Form D                          :      0.000u      0.000s      0.002w    403 calls
HF: DIIS                            :      0.000u      0.000s      3.076w    354 calls
HF: Form C                          :      0.000u      0.000s      0.236w    354 calls
Grad: V T Perturb                   :      0.000u      0.000s      0.019w     48 calls
Grad: S                             :      0.000u      0.000s      0.005w     48 calls
Grad: JK                            :      0.000u      0.000s      2.599w     48 calls
JKGrad: Amn                         :      0.000u      0.000s      0.578w     48 calls
JKGrad: Awmn                        :      0.000u      0.000s      0.000w     48 calls
JKGrad: AB                          :      0.000u      0.000s      0.326w     48 calls
JKGrad: UV                          :      0.000u      0.000s      0.012w     48 calls
JKGrad: ABx                         :      0.000u      0.000s      0.096w     48 calls
JKGrad: Amnx                        :      0.000u      0.000s      0.654w     48 calls
Grad: XC                            :      0.000u      0.000s      9.934w     48 calls
V_xc gradient                       :      0.000u      0.000s      1.529w  26801 calls

--------------------------------------------------------------------------------------
V: Grid                             :      0.000u      0.000s      1.479w     49 calls
| build grid                        :      0.000u      0.000s      0.913w     49 calls
| post-process grid                 :      0.000u      0.000s      0.558w     49 calls
DFH: sparsity prep                  :      0.000u      0.000s      0.292w     49 calls
| Libint2ERI::Libint2ERI            :      0.000u      0.000s      0.215w     49 calls
DFH: initialize()                   :      0.000u      0.000s      0.825w     49 calls
| Libint2ERI::Libint2ERI            :      0.000u      0.000s      0.149w     98 calls
| DFH: AO Construction              :      0.000u      0.000s      0.117w     49 calls
| DFH: AO-Met. Contraction          :      0.000u      0.000s      0.016w     49 calls
HF: Form core H                     :      0.000u      0.000s      0.297w     49 calls
HF: Form S/X                        :      0.000u      0.000s      0.014w     49 calls
HF: Guess                           :      0.000u      0.000s      2.200w     49 calls
| SAD Guess                         :      0.000u      0.000s      2.086w     49 calls
HF: Form G                          :      0.000u      0.000s     51.291w    403 calls
| RV: Form V                        :      0.000u      0.000s     51.154w    403 calls
| | Properties                      :      0.000u      0.000s      4.711w 225044 calls
| | Functional                      :      0.000u      0.000s     41.307w 225044 calls
| | V_xc                            :      0.000u      0.000s      4.701w 225044 calls
| JK: D                             :      0.000u      0.000s      0.002w    403 calls
| JK: USO2AO                        :      0.000u      0.000s      0.007w    403 calls
| JK: JK                            :      0.000u      0.000s      0.071w    403 calls
| | DFH: compute_JK()               :      0.000u      0.000s      0.069w    403 calls
| | | DFH: Grabbing AOs             :      0.000u      0.000s      0.000w    403 calls
| | | DFH: compute_J                :      0.000u      0.000s      0.027w    403 calls
| | | DFH: compute_K                :      0.000u      0.000s      0.029w    403 calls
| JK: AO2USO                        :      0.000u      0.000s      0.003w    403 calls
HF: Form F                          :      0.000u      0.000s      0.007w    403 calls
HF: Form D                          :      0.000u      0.000s      0.002w    403 calls
HF: DIIS                            :      0.000u      0.000s      3.076w    354 calls
HF: Form C                          :      0.000u      0.000s      0.236w    354 calls
Grad: V T Perturb                   :      0.000u      0.000s      0.019w     48 calls
Grad: S                             :      0.000u      0.000s      0.005w     48 calls
Grad: JK                            :      0.000u      0.000s      2.599w     48 calls
| JKGrad: Amn                       :      0.000u      0.000s      0.578w     48 calls
| | Libint2ERI::Libint2ERI          :      0.000u      0.000s      0.147w     48 calls
| JKGrad: Awmn                      :      0.000u      0.000s      0.000w     48 calls
| JKGrad: AB                        :      0.000u      0.000s      0.326w     48 calls
| | Libint2ERI::Libint2ERI          :      0.000u      0.000s      0.002w     48 calls
| JKGrad: UV                        :      0.000u      0.000s      0.012w     48 calls
| JKGrad: ABx                       :      0.000u      0.000s      0.096w     48 calls
| | Libint2ERI::Libint2ERI          :      0.000u      0.000s      0.002w     48 calls
| JKGrad: Amnx                      :      0.000u      0.000s      0.654w     48 calls
| | Libint2ERI::Libint2ERI          :      0.000u      0.000s      0.182w     48 calls
Grad: XC                            :      0.000u      0.000s      9.934w     48 calls
| Properties                        :      0.000u      0.000s      3.528w  26801 calls
| Functional                        :      0.000u      0.000s      4.755w  26801 calls
| V_xc gradient                     :      0.000u      0.000s      1.529w  26801 calls

**************************************************************************************

Host: WX400847

Timers On : Thu Apr 30 10:49:04 2026
Timers Off: Thu Apr 30 10:52:51 2026

Wall Time:      227.77 seconds

                                                       Time (seconds)
Module                                       User      System        Wall        Calls
V: Grid                             :      0.000u      0.000s      3.604w    115 calls
build grid                          :      0.000u      0.000s      2.188w    115 calls
post-process grid                   :      0.000u      0.000s      1.395w    115 calls
DFH: sparsity prep                  :      0.000u      0.000s      0.755w    115 calls
Libint2ERI::Libint2ERI              :      0.000u      0.000s      1.824w    801 calls
DFH: initialize()                   :      0.000u      0.000s      2.279w    115 calls
DFH: AO Construction                :      0.000u      0.000s      0.296w    115 calls
DFH: AO-Met. Contraction            :      0.000u      0.000s      0.040w    115 calls
HF: Form core H                     :      0.000u      0.000s      0.951w    115 calls
HF: Form S/X                        :      0.000u      0.000s      0.032w    115 calls
HF: Guess                           :      0.000u      0.000s      5.153w    114 calls
SAD Guess                           :      0.000u      0.000s      4.913w    114 calls
HF: Form G                          :      0.000u      0.000s    119.426w    923 calls
RV: Form V                          :      0.000u      0.000s    119.183w    923 calls
Properties                          :      0.000u      0.000s     19.755w 578826 calls
Functional                          :      0.000u      0.000s    107.593w 578826 calls
V_xc                                :      0.000u      0.000s     11.032w 515196 calls
JK: D                               :      0.000u      0.000s      0.005w    923 calls
JK: USO2AO                          :      0.000u      0.000s      0.008w    923 calls
JK: JK                              :      0.000u      0.000s      0.153w    923 calls
DFH: compute_JK()                   :      0.000u      0.000s      0.150w    923 calls
DFH: Grabbing AOs                   :      0.000u      0.000s      0.000w    923 calls
DFH: compute_J                      :      0.000u      0.000s      0.068w    923 calls
DFH: compute_K                      :      0.000u      0.000s      0.068w    923 calls
JK: AO2USO                          :      0.000u      0.000s      0.003w    923 calls
HF: Form F                          :      0.000u      0.000s      0.008w    923 calls
HF: Form D                          :      0.000u      0.000s      0.005w    923 calls
HF: DIIS                            :      0.000u      0.000s      6.134w    809 calls
HF: Form C                          :      0.000u      0.000s      0.533w    809 calls
Grad: V T Perturb                   :      0.000u      0.000s      0.046w    114 calls
Grad: S                             :      0.000u      0.000s      0.012w    114 calls
Grad: JK                            :      0.000u      0.000s      6.696w    114 calls
JKGrad: Amn                         :      0.000u      0.000s      1.402w    114 calls
JKGrad: Awmn                        :      0.000u      0.000s      0.000w    114 calls
JKGrad: AB                          :      0.000u      0.000s      0.823w    114 calls
JKGrad: UV                          :      0.000u      0.000s      0.029w    114 calls
JKGrad: ABx                         :      0.000u      0.000s      0.256w    114 calls
JKGrad: Amnx                        :      0.000u      0.000s      1.614w    114 calls
Grad: XC                            :      0.000u      0.000s     24.155w    114 calls
V_xc gradient                       :      0.000u      0.000s      3.665w  63630 calls

--------------------------------------------------------------------------------------
V: Grid                             :      0.000u      0.000s      3.604w    115 calls
| build grid                        :      0.000u      0.000s      2.188w    115 calls
| post-process grid                 :      0.000u      0.000s      1.395w    115 calls
DFH: sparsity prep                  :      0.000u      0.000s      0.755w    115 calls
| Libint2ERI::Libint2ERI            :      0.000u      0.000s      0.560w    115 calls
DFH: initialize()                   :      0.000u      0.000s      2.279w    115 calls
| Libint2ERI::Libint2ERI            :      0.000u      0.000s      0.397w    230 calls
| DFH: AO Construction              :      0.000u      0.000s      0.296w    115 calls
| DFH: AO-Met. Contraction          :      0.000u      0.000s      0.040w    115 calls
HF: Form core H                     :      0.000u      0.000s      0.951w    115 calls
HF: Form S/X                        :      0.000u      0.000s      0.032w    115 calls
HF: Guess                           :      0.000u      0.000s      5.153w    115 calls
| SAD Guess                         :      0.000u      0.000s      4.913w    115 calls
HF: Form G                          :      0.000u      0.000s    119.426w    923 calls
| RV: Form V                        :      0.000u      0.000s    119.183w    923 calls
| | Properties                      :      0.000u      0.000s     11.105w 515196 calls
| | Functional                      :      0.000u      0.000s     96.081w 515196 calls
| | V_xc                            :      0.000u      0.000s     11.032w 515196 calls
| JK: D                             :      0.000u      0.000s      0.005w    923 calls
| JK: USO2AO                        :      0.000u      0.000s      0.008w    923 calls
| JK: JK                            :      0.000u      0.000s      0.153w    923 calls
| | DFH: compute_JK()               :      0.000u      0.000s      0.150w    923 calls
| | | DFH: Grabbing AOs             :      0.000u      0.000s      0.000w    923 calls
| | | DFH: compute_J                :      0.000u      0.000s      0.068w    923 calls
| | | DFH: compute_K                :      0.000u      0.000s      0.068w    923 calls
| JK: AO2USO                        :      0.000u      0.000s      0.003w    923 calls
HF: Form F                          :      0.000u      0.000s      0.008w    923 calls
HF: Form D                          :      0.000u      0.000s      0.005w    923 calls
HF: DIIS                            :      0.000u      0.000s      6.134w    809 calls
HF: Form C                          :      0.000u      0.000s      0.533w    809 calls
Grad: V T Perturb                   :      0.000u      0.000s      0.046w    114 calls
Grad: S                             :      0.000u      0.000s      0.012w    114 calls
Grad: JK                            :      0.000u      0.000s      6.696w    114 calls
| JKGrad: Amn                       :      0.000u      0.000s      1.402w    114 calls
| | Libint2ERI::Libint2ERI          :      0.000u      0.000s      0.380w    114 calls
| JKGrad: Awmn                      :      0.000u      0.000s      0.000w    114 calls
| JKGrad: AB                        :      0.000u      0.000s      0.823w    114 calls
| | Libint2ERI::Libint2ERI          :      0.000u      0.000s      0.004w    114 calls
| JKGrad: UV                        :      0.000u      0.000s      0.029w    114 calls
| JKGrad: ABx                       :      0.000u      0.000s      0.256w    114 calls
| | Libint2ERI::Libint2ERI          :      0.000u      0.000s      0.006w    114 calls
| JKGrad: Amnx                      :      0.000u      0.000s      1.614w    114 calls
| | Libint2ERI::Libint2ERI          :      0.000u      0.000s      0.477w    114 calls
Grad: XC                            :      0.000u      0.000s     24.155w    114 calls
| Properties                        :      0.000u      0.000s      8.650w  63630 calls
| Functional                        :      0.000u      0.000s     11.511w  63630 calls
| V_xc gradient                     :      0.000u      0.000s      3.665w  63630 calls

**************************************************************************************

Host: WX400847

Timers On : Thu Apr 30 10:53:27 2026
Timers Off: Thu Apr 30 10:58:54 2026

Wall Time:      327.26 seconds

                                                       Time (seconds)
Module                                       User      System        Wall        Calls
V: Grid                             :      0.000u      0.000s      4.953w    166 calls
build grid                          :      0.000u      0.000s      3.067w    166 calls
post-process grid                   :      0.000u      0.000s      1.861w    166 calls
DFH: sparsity prep                  :      0.000u      0.000s      1.025w    165 calls
Libint2ERI::Libint2ERI              :      0.000u      0.000s      2.487w   1155 calls
DFH: initialize()                   :      0.000u      0.000s      3.011w    165 calls
DFH: AO Construction                :      0.000u      0.000s      0.407w    165 calls
DFH: AO-Met. Contraction            :      0.000u      0.000s      0.070w    165 calls
HF: Form core H                     :      0.000u      0.000s      1.987w    165 calls
HF: Form S/X                        :      0.000u      0.000s      0.053w    165 calls
HF: Guess                           :      0.000u      0.000s      7.793w    165 calls
SAD Guess                           :      0.000u      0.000s      7.441w    165 calls
HF: Form G                          :      0.000u      0.000s    185.851w   1527 calls
RV: Form V                          :      0.000u      0.000s    185.529w   1527 calls
Properties                          :      0.000u      0.000s     28.957w 941163 calls
Functional                          :      0.000u      0.000s    166.370w 941163 calls
V_xc                                :      0.000u      0.000s     16.683w 849378 calls
JK: D                               :      0.000u      0.000s      0.007w   1527 calls
JK: USO2AO                          :      0.000u      0.000s      0.008w   1527 calls
JK: JK                              :      0.000u      0.000s      0.229w   1527 calls
DFH: compute_JK()                   :      0.000u      0.000s      0.225w   1527 calls
DFH: Grabbing AOs                   :      0.000u      0.000s      0.000w   1527 calls
DFH: compute_J                      :      0.000u      0.000s      0.098w   1527 calls
DFH: compute_K                      :      0.000u      0.000s      0.108w   1527 calls
JK: AO2USO                          :      0.000u      0.000s      0.002w   1527 calls
HF: Form F                          :      0.000u      0.000s      0.012w   1527 calls
HF: Form D                          :      0.000u      0.000s      0.007w   1527 calls
HF: DIIS                            :      0.000u      0.000s      8.462w   1362 calls
HF: Form C                          :      0.000u      0.000s      0.789w   1362 calls
Grad: V T Perturb                   :      0.000u      0.000s      0.062w    165 calls
Grad: S                             :      0.000u      0.000s      0.017w    165 calls
Grad: JK                            :      0.000u      0.000s      8.493w    165 calls
JKGrad: Amn                         :      0.000u      0.000s      1.892w    165 calls
JKGrad: Awmn                        :      0.000u      0.000s      0.000w    165 calls
JKGrad: AB                          :      0.000u      0.000s      1.062w    165 calls
JKGrad: UV                          :      0.000u      0.000s      0.044w    165 calls
JKGrad: ABx                         :      0.000u      0.000s      0.346w    165 calls
JKGrad: Amnx                        :      0.000u      0.000s      2.204w    165 calls
Grad: XC                            :      0.000u      0.000s     33.256w    165 calls
V_xc gradient                       :      0.000u      0.000s      5.044w  91785 calls

--------------------------------------------------------------------------------------
V: Grid                             :      0.000u      0.000s      4.953w    166 calls
| build grid                        :      0.000u      0.000s      3.067w    166 calls
| post-process grid                 :      0.000u      0.000s      1.861w    166 calls
DFH: sparsity prep                  :      0.000u      0.000s      1.025w    165 calls
| Libint2ERI::Libint2ERI            :      0.000u      0.000s      0.752w    165 calls
DFH: initialize()                   :      0.000u      0.000s      3.011w    165 calls
| Libint2ERI::Libint2ERI            :      0.000u      0.000s      0.567w    330 calls
| DFH: AO Construction              :      0.000u      0.000s      0.407w    165 calls
| DFH: AO-Met. Contraction          :      0.000u      0.000s      0.070w    165 calls
HF: Form core H                     :      0.000u      0.000s      1.987w    165 calls
HF: Form S/X                        :      0.000u      0.000s      0.053w    165 calls
HF: Guess                           :      0.000u      0.000s      7.793w    165 calls
| SAD Guess                         :      0.000u      0.000s      7.441w    165 calls
HF: Form G                          :      0.000u      0.000s    185.851w   1527 calls
| RV: Form V                        :      0.000u      0.000s    185.529w   1527 calls
| | Properties                      :      0.000u      0.000s     17.112w 849378 calls
| | Functional                      :      0.000u      0.000s    150.355w 849378 calls
| | V_xc                            :      0.000u      0.000s     16.683w 849378 calls
| JK: D                             :      0.000u      0.000s      0.007w   1527 calls
| JK: USO2AO                        :      0.000u      0.000s      0.008w   1527 calls
| JK: JK                            :      0.000u      0.000s      0.229w   1527 calls
| | DFH: compute_JK()               :      0.000u      0.000s      0.225w   1527 calls
| | | DFH: Grabbing AOs             :      0.000u      0.000s      0.000w   1527 calls
| | | DFH: compute_J                :      0.000u      0.000s      0.098w   1527 calls
| | | DFH: compute_K                :      0.000u      0.000s      0.108w   1527 calls
| JK: AO2USO                        :      0.000u      0.000s      0.002w   1527 calls
HF: Form F                          :      0.000u      0.000s      0.012w   1527 calls
HF: Form D                          :      0.000u      0.000s      0.007w   1527 calls
HF: DIIS                            :      0.000u      0.000s      8.462w   1362 calls
HF: Form C                          :      0.000u      0.000s      0.789w   1362 calls
Grad: V T Perturb                   :      0.000u      0.000s      0.062w    165 calls
Grad: S                             :      0.000u      0.000s      0.017w    165 calls
Grad: JK                            :      0.000u      0.000s      8.493w    165 calls
| JKGrad: Amn                       :      0.000u      0.000s      1.892w    165 calls
| | Libint2ERI::Libint2ERI          :      0.000u      0.000s      0.514w    165 calls
| JKGrad: Awmn                      :      0.000u      0.000s      0.000w    165 calls
| JKGrad: AB                        :      0.000u      0.000s      1.062w    165 calls
| | Libint2ERI::Libint2ERI          :      0.000u      0.000s      0.006w    165 calls
| JKGrad: UV                        :      0.000u      0.000s      0.044w    165 calls
| JKGrad: ABx                       :      0.000u      0.000s      0.346w    165 calls
| | Libint2ERI::Libint2ERI          :      0.000u      0.000s      0.006w    165 calls
| JKGrad: Amnx                      :      0.000u      0.000s      2.204w    165 calls
| | Libint2ERI::Libint2ERI          :      0.000u      0.000s      0.643w    165 calls
Grad: XC                            :      0.000u      0.000s     33.256w    165 calls
| Properties                        :      0.000u      0.000s     11.846w  91785 calls
| Functional                        :      0.000u      0.000s     16.015w  91785 calls
| V_xc gradient                     :      0.000u      0.000s      5.044w  91785 calls

**************************************************************************************

Host: WX400847

Timers On : Thu Apr 30 11:00:56 2026
Timers Off: Thu Apr 30 11:03:16 2026

Wall Time:      140.50 seconds

                                                       Time (seconds)
Module                                       User      System        Wall        Calls
V: Grid                             :      0.000u      0.000s      2.178w     70 calls
build grid                          :      0.000u      0.000s      1.352w     70 calls
post-process grid                   :      0.000u      0.000s      0.815w     70 calls
DFH: sparsity prep                  :      0.000u      0.000s      0.441w     70 calls
Libint2ERI::Libint2ERI              :      0.000u      0.000s      1.082w    486 calls
DFH: initialize()                   :      0.000u      0.000s      1.300w     70 calls
DFH: AO Construction                :      0.000u      0.000s      0.170w     70 calls
DFH: AO-Met. Contraction            :      0.000u      0.000s      0.022w     70 calls
HF: Form core H                     :      0.000u      0.000s      0.419w     70 calls
HF: Form S/X                        :      0.000u      0.000s      0.020w     70 calls
HF: Guess                           :      0.000u      0.000s      3.215w     70 calls
SAD Guess                           :      0.000u      0.000s      3.052w     70 calls
HF: Form G                          :      0.000u      0.000s     73.274w    570 calls
RV: Form V                          :      0.000u      0.000s     73.251w    571 calls
Properties                          :      0.000u      0.000s     11.956w 357203 calls
Functional                          :      0.000u      0.000s     66.137w 357203 calls
V_xc                                :      0.000u      0.000s      6.804w 318692 calls
JK: D                               :      0.000u      0.000s      0.003w    571 calls
JK: USO2AO                          :      0.000u      0.000s      0.008w    571 calls
JK: JK                              :      0.000u      0.000s      0.091w    571 calls
DFH: compute_JK()                   :      0.000u      0.000s      0.088w    571 calls
DFH: Grabbing AOs                   :      0.000u      0.000s      0.000w    571 calls
DFH: compute_J                      :      0.000u      0.000s      0.042w    571 calls
DFH: compute_K                      :      0.000u      0.000s      0.040w    571 calls
JK: AO2USO                          :      0.000u      0.000s      0.002w    571 calls
HF: Form F                          :      0.000u      0.000s      0.006w    570 calls
HF: Form D                          :      0.000u      0.000s      0.005w    570 calls
HF: DIIS                            :      0.000u      0.000s      3.639w    500 calls
HF: Form C                          :      0.000u      0.000s      0.380w    500 calls
Grad: V T Perturb                   :      0.000u      0.000s      0.029w     69 calls
Grad: S                             :      0.000u      0.000s      0.007w     69 calls
Grad: JK                            :      0.000u      0.000s      3.760w     69 calls
JKGrad: Amn                         :      0.000u      0.000s      0.828w     69 calls
JKGrad: Awmn                        :      0.000u      0.000s      0.000w     69 calls
JKGrad: AB                          :      0.000u      0.000s      0.495w     69 calls
JKGrad: UV                          :      0.000u      0.000s      0.018w     69 calls
JKGrad: ABx                         :      0.000u      0.000s      0.149w     69 calls
JKGrad: Amnx                        :      0.000u      0.000s      1.031w     69 calls
Grad: XC                            :      0.000u      0.000s     14.635w     69 calls
V_xc gradient                       :      0.000u      0.000s      2.211w  38511 calls

--------------------------------------------------------------------------------------
V: Grid                             :      0.000u      0.000s      2.178w     70 calls
| build grid                        :      0.000u      0.000s      1.352w     70 calls
| post-process grid                 :      0.000u      0.000s      0.815w     70 calls
DFH: sparsity prep                  :      0.000u      0.000s      0.441w     70 calls
| Libint2ERI::Libint2ERI            :      0.000u      0.000s      0.329w     70 calls
DFH: initialize()                   :      0.000u      0.000s      1.300w     70 calls
| Libint2ERI::Libint2ERI            :      0.000u      0.000s      0.240w    140 calls
| DFH: AO Construction              :      0.000u      0.000s      0.170w     70 calls
| DFH: AO-Met. Contraction          :      0.000u      0.000s      0.022w     70 calls
HF: Form core H                     :      0.000u      0.000s      0.419w     70 calls
HF: Form S/X                        :      0.000u      0.000s      0.020w     70 calls
HF: Guess                           :      0.000u      0.000s      3.215w     70 calls
| SAD Guess                         :      0.000u      0.000s      3.052w     70 calls
HF: Form G                          :      0.000u      0.000s     73.274w    571 calls
| RV: Form V                        :      0.000u      0.000s     73.251w    571 calls
| | Properties                      :      0.000u      0.000s      6.738w 318692 calls
| | Functional                      :      0.000u      0.000s     59.125w 318692 calls
| | V_xc                            :      0.000u      0.000s      6.804w 318692 calls
| JK: D                             :      0.000u      0.000s      0.003w    571 calls
| JK: USO2AO                        :      0.000u      0.000s      0.008w    571 calls
| JK: JK                            :      0.000u      0.000s      0.091w    571 calls
| | DFH: compute_JK()               :      0.000u      0.000s      0.088w    571 calls
| | | DFH: Grabbing AOs             :      0.000u      0.000s      0.000w    571 calls
| | | DFH: compute_J                :      0.000u      0.000s      0.042w    571 calls
| | | DFH: compute_K                :      0.000u      0.000s      0.040w    571 calls
| JK: AO2USO                        :      0.000u      0.000s      0.002w    571 calls
HF: Form F                          :      0.000u      0.000s      0.006w    570 calls
HF: Form D                          :      0.000u      0.000s      0.005w    570 calls
HF: DIIS                            :      0.000u      0.000s      3.639w    500 calls
HF: Form C                          :      0.000u      0.000s      0.380w    500 calls
Grad: V T Perturb                   :      0.000u      0.000s      0.029w     69 calls
Grad: S                             :      0.000u      0.000s      0.007w     69 calls
Grad: JK                            :      0.000u      0.000s      3.760w     69 calls
| JKGrad: Amn                       :      0.000u      0.000s      0.828w     69 calls
| | Libint2ERI::Libint2ERI          :      0.000u      0.000s      0.228w     69 calls
| JKGrad: Awmn                      :      0.000u      0.000s      0.000w     69 calls
| JKGrad: AB                        :      0.000u      0.000s      0.495w     69 calls
| | Libint2ERI::Libint2ERI          :      0.000u      0.000s      0.004w     69 calls
| JKGrad: UV                        :      0.000u      0.000s      0.018w     69 calls
| JKGrad: ABx                       :      0.000u      0.000s      0.149w     69 calls
| | Libint2ERI::Libint2ERI          :      0.000u      0.000s      0.003w     69 calls
| JKGrad: Amnx                      :      0.000u      0.000s      1.031w     69 calls
| | Libint2ERI::Libint2ERI          :      0.000u      0.000s      0.279w     69 calls
Grad: XC                            :      0.000u      0.000s     14.635w     69 calls
| Properties                        :      0.000u      0.000s      5.218w  38511 calls
| Functional                        :      0.000u      0.000s      7.012w  38511 calls
| V_xc gradient                     :      0.000u      0.000s      2.211w  38511 calls

**************************************************************************************

Host: WX400847

Timers On : Thu Apr 30 11:03:41 2026
Timers Off: Thu Apr 30 11:05:36 2026

Wall Time:      115.39 seconds

                                                       Time (seconds)
Module                                       User      System        Wall        Calls
V: Grid                             :      0.000u      0.000s      1.723w     58 calls
build grid                          :      0.000u      0.000s      1.051w     58 calls
post-process grid                   :      0.000u      0.000s      0.663w     58 calls
DFH: sparsity prep                  :      0.000u      0.000s      0.369w     58 calls
Libint2ERI::Libint2ERI              :      0.000u      0.000s      0.895w    406 calls
DFH: initialize()                   :      0.000u      0.000s      1.079w     58 calls
DFH: AO Construction                :      0.000u      0.000s      0.138w     58 calls
DFH: AO-Met. Contraction            :      0.000u      0.000s      0.018w     58 calls
HF: Form core H                     :      0.000u      0.000s      0.468w     58 calls
HF: Form S/X                        :      0.000u      0.000s      0.021w     58 calls
HF: Guess                           :      0.000u      0.000s      2.910w     58 calls
SAD Guess                           :      0.000u      0.000s      2.782w     58 calls
HF: Form G                          :      0.000u      0.000s     60.405w    475 calls
RV: Form V                          :      0.000u      0.000s     60.263w    475 calls
Properties                          :      0.000u      0.000s      9.891w 297549 calls
Functional                          :      0.000u      0.000s     54.528w 297549 calls
V_xc                                :      0.000u      0.000s      5.403w 265172 calls
JK: D                               :      0.000u      0.000s      0.003w    475 calls
JK: USO2AO                          :      0.000u      0.000s      0.008w    475 calls
JK: JK                              :      0.000u      0.000s      0.074w    475 calls
DFH: compute_JK()                   :      0.000u      0.000s      0.073w    475 calls
DFH: Grabbing AOs                   :      0.000u      0.000s      0.000w    475 calls
DFH: compute_J                      :      0.000u      0.000s      0.031w    475 calls
DFH: compute_K                      :      0.000u      0.000s      0.035w    475 calls
JK: AO2USO                          :      0.000u      0.000s      0.002w    475 calls
HF: Form F                          :      0.000u      0.000s      0.004w    475 calls
HF: Form D                          :      0.000u      0.000s      0.003w    475 calls
HF: DIIS                            :      0.000u      0.000s      3.149w    417 calls
HF: Form C                          :      0.000u      0.000s      0.249w    417 calls
Grad: V T Perturb                   :      0.000u      0.000s      0.023w     58 calls
Grad: S                             :      0.000u      0.000s      0.006w     58 calls
Grad: JK                            :      0.000u      0.000s      3.243w     58 calls
JKGrad: Amn                         :      0.000u      0.000s      0.744w     58 calls
JKGrad: Awmn                        :      0.000u      0.000s      0.000w     58 calls
JKGrad: AB                          :      0.000u      0.000s      0.396w     58 calls
JKGrad: UV                          :      0.000u      0.000s      0.017w     58 calls
JKGrad: ABx                         :      0.000u      0.000s      0.125w     58 calls
JKGrad: Amnx                        :      0.000u      0.000s      0.793w     58 calls
Grad: XC                            :      0.000u      0.000s     12.034w     58 calls
V_xc gradient                       :      0.000u      0.000s      1.839w  32377 calls

--------------------------------------------------------------------------------------
V: Grid                             :      0.000u      0.000s      1.723w     58 calls
| build grid                        :      0.000u      0.000s      1.051w     58 calls
| post-process grid                 :      0.000u      0.000s      0.663w     58 calls
DFH: sparsity prep                  :      0.000u      0.000s      0.369w     58 calls
| Libint2ERI::Libint2ERI            :      0.000u      0.000s      0.278w     58 calls
DFH: initialize()                   :      0.000u      0.000s      1.079w     58 calls
| Libint2ERI::Libint2ERI            :      0.000u      0.000s      0.194w    116 calls
| DFH: AO Construction              :      0.000u      0.000s      0.138w     58 calls
| DFH: AO-Met. Contraction          :      0.000u      0.000s      0.018w     58 calls
HF: Form core H                     :      0.000u      0.000s      0.468w     58 calls
HF: Form S/X                        :      0.000u      0.000s      0.021w     58 calls
HF: Guess                           :      0.000u      0.000s      2.910w     58 calls
| SAD Guess                         :      0.000u      0.000s      2.782w     58 calls
HF: Form G                          :      0.000u      0.000s     60.405w    475 calls
| RV: Form V                        :      0.000u      0.000s     60.263w    475 calls
| | Properties                      :      0.000u      0.000s      5.603w 265172 calls
| | Functional                      :      0.000u      0.000s     48.773w 265172 calls
| | V_xc                            :      0.000u      0.000s      5.403w 265172 calls
| JK: D                             :      0.000u      0.000s      0.003w    475 calls
| JK: USO2AO                        :      0.000u      0.000s      0.008w    475 calls
| JK: JK                            :      0.000u      0.000s      0.074w    475 calls
| | DFH: compute_JK()               :      0.000u      0.000s      0.073w    475 calls
| | | DFH: Grabbing AOs             :      0.000u      0.000s      0.000w    475 calls
| | | DFH: compute_J                :      0.000u      0.000s      0.031w    475 calls
| | | DFH: compute_K                :      0.000u      0.000s      0.035w    475 calls
| JK: AO2USO                        :      0.000u      0.000s      0.002w    475 calls
HF: Form F                          :      0.000u      0.000s      0.004w    475 calls
HF: Form D                          :      0.000u      0.000s      0.003w    475 calls
HF: DIIS                            :      0.000u      0.000s      3.149w    417 calls
HF: Form C                          :      0.000u      0.000s      0.249w    417 calls
Grad: V T Perturb                   :      0.000u      0.000s      0.023w     58 calls
Grad: S                             :      0.000u      0.000s      0.006w     58 calls
Grad: JK                            :      0.000u      0.000s      3.243w     58 calls
| JKGrad: Amn                       :      0.000u      0.000s      0.744w     58 calls
| | Libint2ERI::Libint2ERI          :      0.000u      0.000s      0.193w     58 calls
| JKGrad: Awmn                      :      0.000u      0.000s      0.000w     58 calls
| JKGrad: AB                        :      0.000u      0.000s      0.396w     58 calls
| | Libint2ERI::Libint2ERI          :      0.000u      0.000s      0.002w     58 calls
| JKGrad: UV                        :      0.000u      0.000s      0.017w     58 calls
| JKGrad: ABx                       :      0.000u      0.000s      0.125w     58 calls
| | Libint2ERI::Libint2ERI          :      0.000u      0.000s      0.002w     58 calls
| JKGrad: Amnx                      :      0.000u      0.000s      0.793w     58 calls
| | Libint2ERI::Libint2ERI          :      0.000u      0.000s      0.227w     58 calls
Grad: XC                            :      0.000u      0.000s     12.034w     58 calls
| Properties                        :      0.000u      0.000s      4.287w  32377 calls
| Functional                        :      0.000u      0.000s      5.756w  32377 calls
| V_xc gradient                     :      0.000u      0.000s      1.839w  32377 calls

**************************************************************************************

Host: WX400847

Timers On : Thu Apr 30 11:06:42 2026
Timers Off: Thu Apr 30 11:08:39 2026

Wall Time:      116.81 seconds

                                                       Time (seconds)
Module                                       User      System        Wall        Calls
V: Grid                             :      0.000u      0.000s      1.770w     59 calls
build grid                          :      0.000u      0.000s      1.077w     59 calls
post-process grid                   :      0.000u      0.000s      0.683w     59 calls
DFH: sparsity prep                  :      0.000u      0.000s      0.361w     59 calls
Libint2ERI::Libint2ERI              :      0.000u      0.000s      0.896w    413 calls
DFH: initialize()                   :      0.000u      0.000s      1.118w     59 calls
DFH: AO Construction                :      0.000u      0.000s      0.143w     59 calls
DFH: AO-Met. Contraction            :      0.000u      0.000s      0.020w     59 calls
HF: Form core H                     :      0.000u      0.000s      0.472w     59 calls
HF: Form S/X                        :      0.000u      0.000s      0.017w     59 calls
HF: Guess                           :      0.000u      0.000s      2.649w     59 calls
SAD Guess                           :      0.000u      0.000s      2.515w     59 calls
HF: Form G                          :      0.000u      0.000s     61.011w    483 calls
RV: Form V                          :      0.000u      0.000s     60.794w    483 calls
Properties                          :      0.000u      0.000s      9.924w 302571 calls
Functional                          :      0.000u      0.000s     54.866w 302571 calls
V_xc                                :      0.000u      0.000s      5.520w 269636 calls
JK: D                               :      0.000u      0.000s      0.003w    483 calls
JK: USO2AO                          :      0.000u      0.000s      0.007w    483 calls
JK: JK                              :      0.000u      0.000s      0.149w    483 calls
DFH: compute_JK()                   :      0.000u      0.000s      0.148w    483 calls
DFH: Grabbing AOs                   :      0.000u      0.000s      0.000w    483 calls
DFH: compute_J                      :      0.000u      0.000s      0.104w    483 calls
DFH: compute_K                      :      0.000u      0.000s      0.035w    483 calls
JK: AO2USO                          :      0.000u      0.000s      0.002w    483 calls
HF: Form F                          :      0.000u      0.000s      0.005w    483 calls
HF: Form D                          :      0.000u      0.000s      0.003w    483 calls
HF: DIIS                            :      0.000u      0.000s      3.311w    424 calls
HF: Form C                          :      0.000u      0.000s      0.253w    424 calls
Grad: V T Perturb                   :      0.000u      0.000s      0.024w     59 calls
Grad: S                             :      0.000u      0.000s      0.006w     59 calls
Grad: JK                            :      0.000u      0.000s      3.373w     59 calls
JKGrad: Amn                         :      0.000u      0.000s      0.697w     59 calls
JKGrad: Awmn                        :      0.000u      0.000s      0.000w     59 calls
JKGrad: AB                          :      0.000u      0.000s      0.472w     59 calls
JKGrad: UV                          :      0.000u      0.000s      0.016w     59 calls
JKGrad: ABx                         :      0.000u      0.000s      0.131w     59 calls
JKGrad: Amnx                        :      0.000u      0.000s      0.863w     59 calls
Grad: XC                            :      0.000u      0.000s     12.009w     59 calls
V_xc gradient                       :      0.000u      0.000s      1.862w  32935 calls

--------------------------------------------------------------------------------------
V: Grid                             :      0.000u      0.000s      1.770w     59 calls
| build grid                        :      0.000u      0.000s      1.077w     59 calls
| post-process grid                 :      0.000u      0.000s      0.683w     59 calls
DFH: sparsity prep                  :      0.000u      0.000s      0.361w     59 calls
| Libint2ERI::Libint2ERI            :      0.000u      0.000s      0.265w     59 calls
DFH: initialize()                   :      0.000u      0.000s      1.118w     59 calls
| Libint2ERI::Libint2ERI            :      0.000u      0.000s      0.192w    118 calls
| DFH: AO Construction              :      0.000u      0.000s      0.143w     59 calls
| DFH: AO-Met. Contraction          :      0.000u      0.000s      0.020w     59 calls
HF: Form core H                     :      0.000u      0.000s      0.472w     59 calls
HF: Form S/X                        :      0.000u      0.000s      0.017w     59 calls
HF: Guess                           :      0.000u      0.000s      2.649w     59 calls
| SAD Guess                         :      0.000u      0.000s      2.515w     59 calls
HF: Form G                          :      0.000u      0.000s     61.011w    483 calls
| RV: Form V                        :      0.000u      0.000s     60.794w    483 calls
| | Properties                      :      0.000u      0.000s      5.651w 269636 calls
| | Functional                      :      0.000u      0.000s     49.143w 269636 calls
| | V_xc                            :      0.000u      0.000s      5.520w 269636 calls
| JK: D                             :      0.000u      0.000s      0.003w    483 calls
| JK: USO2AO                        :      0.000u      0.000s      0.007w    483 calls
| JK: JK                            :      0.000u      0.000s      0.149w    483 calls
| | DFH: compute_JK()               :      0.000u      0.000s      0.148w    483 calls
| | | DFH: Grabbing AOs             :      0.000u      0.000s      0.000w    483 calls
| | | DFH: compute_J                :      0.000u      0.000s      0.104w    483 calls
| | | DFH: compute_K                :      0.000u      0.000s      0.035w    483 calls
| JK: AO2USO                        :      0.000u      0.000s      0.002w    483 calls
HF: Form F                          :      0.000u      0.000s      0.005w    483 calls
HF: Form D                          :      0.000u      0.000s      0.003w    483 calls
HF: DIIS                            :      0.000u      0.000s      3.311w    424 calls
HF: Form C                          :      0.000u      0.000s      0.253w    424 calls
Grad: V T Perturb                   :      0.000u      0.000s      0.024w     59 calls
Grad: S                             :      0.000u      0.000s      0.006w     59 calls
Grad: JK                            :      0.000u      0.000s      3.373w     59 calls
| JKGrad: Amn                       :      0.000u      0.000s      0.697w     59 calls
| | Libint2ERI::Libint2ERI          :      0.000u      0.000s      0.189w     59 calls
| JKGrad: Awmn                      :      0.000u      0.000s      0.000w     59 calls
| JKGrad: AB                        :      0.000u      0.000s      0.472w     59 calls
| | Libint2ERI::Libint2ERI          :      0.000u      0.000s      0.002w     59 calls
| JKGrad: UV                        :      0.000u      0.000s      0.016w     59 calls
| JKGrad: ABx                       :      0.000u      0.000s      0.131w     59 calls
| | Libint2ERI::Libint2ERI          :      0.000u      0.000s      0.002w     59 calls
| JKGrad: Amnx                      :      0.000u      0.000s      0.863w     59 calls
| | Libint2ERI::Libint2ERI          :      0.000u      0.000s      0.245w     59 calls
Grad: XC                            :      0.000u      0.000s     12.009w     59 calls
| Properties                        :      0.000u      0.000s      4.273w  32935 calls
| Functional                        :      0.000u      0.000s      5.724w  32935 calls
| V_xc gradient                     :      0.000u      0.000s      1.862w  32935 calls

**************************************************************************************

Host: WX400847

Timers On : Thu Apr 30 11:11:37 2026
Timers Off: Thu Apr 30 11:13:32 2026

Wall Time:      114.90 seconds

                                                       Time (seconds)
Module                                       User      System        Wall        Calls
V: Grid                             :      0.000u      0.000s      1.736w     59 calls
build grid                          :      0.000u      0.000s      1.075w     59 calls
post-process grid                   :      0.000u      0.000s      0.652w     59 calls
DFH: sparsity prep                  :      0.000u      0.000s      0.353w     59 calls
Libint2ERI::Libint2ERI              :      0.000u      0.000s      0.870w    413 calls
DFH: initialize()                   :      0.000u      0.000s      1.038w     59 calls
DFH: AO Construction                :      0.000u      0.000s      0.140w     59 calls
DFH: AO-Met. Contraction            :      0.000u      0.000s      0.018w     59 calls
HF: Form core H                     :      0.000u      0.000s      0.312w     59 calls
HF: Form S/X                        :      0.000u      0.000s      0.017w     59 calls
HF: Guess                           :      0.000u      0.000s      2.512w     59 calls
SAD Guess                           :      0.000u      0.000s      2.392w     59 calls
HF: Form G                          :      0.000u      0.000s     60.187w    483 calls
RV: Form V                          :      0.000u      0.000s     60.044w    483 calls
Properties                          :      0.000u      0.000s      9.685w 302571 calls
Functional                          :      0.000u      0.000s     54.344w 302571 calls
V_xc                                :      0.000u      0.000s      5.455w 269636 calls
JK: D                               :      0.000u      0.000s      0.003w    483 calls
JK: USO2AO                          :      0.000u      0.000s      0.007w    483 calls
JK: JK                              :      0.000u      0.000s      0.072w    483 calls
DFH: compute_JK()                   :      0.000u      0.000s      0.071w    483 calls
DFH: Grabbing AOs                   :      0.000u      0.000s      0.000w    483 calls
DFH: compute_J                      :      0.000u      0.000s      0.032w    483 calls
DFH: compute_K                      :      0.000u      0.000s      0.032w    483 calls
JK: AO2USO                          :      0.000u      0.000s      0.002w    483 calls
HF: Form F                          :      0.000u      0.000s      0.004w    483 calls
HF: Form D                          :      0.000u      0.000s      0.003w    483 calls
HF: DIIS                            :      0.000u      0.000s      3.169w    424 calls
HF: Form C                          :      0.000u      0.000s      0.257w    424 calls
Grad: V T Perturb                   :      0.000u      0.000s      0.023w     59 calls
Grad: S                             :      0.000u      0.000s      0.006w     59 calls
Grad: JK                            :      0.000u      0.000s      2.992w     59 calls
JKGrad: Amn                         :      0.000u      0.000s      0.706w     59 calls
JKGrad: Awmn                        :      0.000u      0.000s      0.000w     59 calls
JKGrad: AB                          :      0.000u      0.000s      0.430w     59 calls
JKGrad: UV                          :      0.000u      0.000s      0.016w     59 calls
JKGrad: ABx                         :      0.000u      0.000s      0.127w     59 calls
JKGrad: Amnx                        :      0.000u      0.000s      0.795w     59 calls
Grad: XC                            :      0.000u      0.000s     11.854w     59 calls
V_xc gradient                       :      0.000u      0.000s      1.798w  32935 calls

--------------------------------------------------------------------------------------
V: Grid                             :      0.000u      0.000s      1.736w     59 calls
| build grid                        :      0.000u      0.000s      1.075w     59 calls
| post-process grid                 :      0.000u      0.000s      0.652w     59 calls
DFH: sparsity prep                  :      0.000u      0.000s      0.353w     59 calls
| Libint2ERI::Libint2ERI            :      0.000u      0.000s      0.258w     59 calls
DFH: initialize()                   :      0.000u      0.000s      1.038w     59 calls
| Libint2ERI::Libint2ERI            :      0.000u      0.000s      0.193w    118 calls
| DFH: AO Construction              :      0.000u      0.000s      0.140w     59 calls
| DFH: AO-Met. Contraction          :      0.000u      0.000s      0.018w     59 calls
HF: Form core H                     :      0.000u      0.000s      0.312w     59 calls
HF: Form S/X                        :      0.000u      0.000s      0.017w     59 calls
HF: Guess                           :      0.000u      0.000s      2.512w     59 calls
| SAD Guess                         :      0.000u      0.000s      2.392w     59 calls
HF: Form G                          :      0.000u      0.000s     60.187w    483 calls
| RV: Form V                        :      0.000u      0.000s     60.044w    483 calls
| | Properties                      :      0.000u      0.000s      5.475w 269636 calls
| | Functional                      :      0.000u      0.000s     48.646w 269636 calls
| | V_xc                            :      0.000u      0.000s      5.455w 269636 calls
| JK: D                             :      0.000u      0.000s      0.003w    483 calls
| JK: USO2AO                        :      0.000u      0.000s      0.007w    483 calls
| JK: JK                            :      0.000u      0.000s      0.072w    483 calls
| | DFH: compute_JK()               :      0.000u      0.000s      0.071w    483 calls
| | | DFH: Grabbing AOs             :      0.000u      0.000s      0.000w    483 calls
| | | DFH: compute_J                :      0.000u      0.000s      0.032w    483 calls
| | | DFH: compute_K                :      0.000u      0.000s      0.032w    483 calls
| JK: AO2USO                        :      0.000u      0.000s      0.002w    483 calls
HF: Form F                          :      0.000u      0.000s      0.004w    483 calls
HF: Form D                          :      0.000u      0.000s      0.003w    483 calls
HF: DIIS                            :      0.000u      0.000s      3.169w    424 calls
HF: Form C                          :      0.000u      0.000s      0.257w    424 calls
Grad: V T Perturb                   :      0.000u      0.000s      0.023w     59 calls
Grad: S                             :      0.000u      0.000s      0.006w     59 calls
Grad: JK                            :      0.000u      0.000s      2.992w     59 calls
| JKGrad: Amn                       :      0.000u      0.000s      0.706w     59 calls
| | Libint2ERI::Libint2ERI          :      0.000u      0.000s      0.186w     59 calls
| JKGrad: Awmn                      :      0.000u      0.000s      0.000w     59 calls
| JKGrad: AB                        :      0.000u      0.000s      0.430w     59 calls
| | Libint2ERI::Libint2ERI          :      0.000u      0.000s      0.002w     59 calls
| JKGrad: UV                        :      0.000u      0.000s      0.016w     59 calls
| JKGrad: ABx                       :      0.000u      0.000s      0.127w     59 calls
| | Libint2ERI::Libint2ERI          :      0.000u      0.000s      0.002w     59 calls
| JKGrad: Amnx                      :      0.000u      0.000s      0.795w     59 calls
| | Libint2ERI::Libint2ERI          :      0.000u      0.000s      0.228w     59 calls
Grad: XC                            :      0.000u      0.000s     11.854w     59 calls
| Properties                        :      0.000u      0.000s      4.209w  32935 calls
| Functional                        :      0.000u      0.000s      5.698w  32935 calls
| V_xc gradient                     :      0.000u      0.000s      1.798w  32935 calls

**************************************************************************************

Host: WX400847

Timers On : Thu Apr 30 11:19:34 2026
Timers Off: Thu Apr 30 11:20:58 2026

Wall Time:       84.62 seconds

                                                       Time (seconds)
Module                                       User      System        Wall        Calls
V: Grid                             :      0.000u      0.000s      1.338w     38 calls
build grid                          :      0.000u      0.000s      0.786w     38 calls
post-process grid                   :      0.000u      0.000s      0.546w     38 calls
DFH: sparsity prep                  :      0.000u      0.000s      0.251w     38 calls
Libint2ERI::Libint2ERI              :      0.000u      0.000s      0.625w    266 calls
DFH: initialize()                   :      0.000u      0.000s      0.834w     38 calls
DFH: AO Construction                :      0.000u      0.000s      0.097w     38 calls
DFH: AO-Met. Contraction            :      0.000u      0.000s      0.012w     38 calls
HF: Form core H                     :      0.000u      0.000s      0.490w     38 calls
HF: Form S/X                        :      0.000u      0.000s      0.012w     38 calls
HF: Guess                           :      0.000u      0.000s      1.889w     38 calls
SAD Guess                           :      0.000u      0.000s      1.800w     38 calls
HF: Form G                          :      0.000u      0.000s     45.455w    347 calls
RV: Form V                          :      0.000u      0.000s     45.353w    347 calls
Properties                          :      0.000u      0.000s      7.220w 213935 calls
Functional                          :      0.000u      0.000s     40.292w 213935 calls
V_xc                                :      0.000u      0.000s      4.302w 192821 calls
JK: D                               :      0.000u      0.000s      0.002w    347 calls
JK: USO2AO                          :      0.000u      0.000s      0.005w    347 calls
JK: JK                              :      0.000u      0.000s      0.056w    347 calls
DFH: compute_JK()                   :      0.000u      0.000s      0.055w    347 calls
DFH: Grabbing AOs                   :      0.000u      0.000s      0.000w    347 calls
DFH: compute_J                      :      0.000u      0.000s      0.024w    347 calls
DFH: compute_K                      :      0.000u      0.000s      0.026w    347 calls
JK: AO2USO                          :      0.000u      0.000s      0.001w    347 calls
HF: Form F                          :      0.000u      0.000s      0.005w    347 calls
HF: Form D                          :      0.000u      0.000s      0.002w    347 calls
HF: DIIS                            :      0.000u      0.000s      2.483w    309 calls
HF: Form C                          :      0.000u      0.000s      0.198w    309 calls
Grad: V T Perturb                   :      0.000u      0.000s      0.026w     38 calls
Grad: S                             :      0.000u      0.000s      0.004w     38 calls
Grad: JK                            :      0.000u      0.000s      2.320w     38 calls
JKGrad: Amn                         :      0.000u      0.000s      0.450w     38 calls
JKGrad: Awmn                        :      0.000u      0.000s      0.000w     38 calls
JKGrad: AB                          :      0.000u      0.000s      0.270w     38 calls
JKGrad: UV                          :      0.000u      0.000s      0.011w     38 calls
JKGrad: ABx                         :      0.000u      0.000s      0.084w     38 calls
JKGrad: Amnx                        :      0.000u      0.000s      0.564w     38 calls
Grad: XC                            :      0.000u      0.000s      8.206w     38 calls
V_xc gradient                       :      0.000u      0.000s      1.264w  21114 calls

--------------------------------------------------------------------------------------
V: Grid                             :      0.000u      0.000s      1.338w     38 calls
| build grid                        :      0.000u      0.000s      0.786w     38 calls
| post-process grid                 :      0.000u      0.000s      0.546w     38 calls
DFH: sparsity prep                  :      0.000u      0.000s      0.251w     38 calls
| Libint2ERI::Libint2ERI            :      0.000u      0.000s      0.188w     38 calls
DFH: initialize()                   :      0.000u      0.000s      0.834w     38 calls
| Libint2ERI::Libint2ERI            :      0.000u      0.000s      0.138w     76 calls
| DFH: AO Construction              :      0.000u      0.000s      0.097w     38 calls
| DFH: AO-Met. Contraction          :      0.000u      0.000s      0.012w     38 calls
HF: Form core H                     :      0.000u      0.000s      0.490w     38 calls
HF: Form S/X                        :      0.000u      0.000s      0.012w     38 calls
HF: Guess                           :      0.000u      0.000s      1.889w     38 calls
| SAD Guess                         :      0.000u      0.000s      1.800w     38 calls
HF: Form G                          :      0.000u      0.000s     45.455w    347 calls
| RV: Form V                        :      0.000u      0.000s     45.353w    347 calls
| | Properties                      :      0.000u      0.000s      4.331w 192821 calls
| | Functional                      :      0.000u      0.000s     36.339w 192821 calls
| | V_xc                            :      0.000u      0.000s      4.302w 192821 calls
| JK: D                             :      0.000u      0.000s      0.002w    347 calls
| JK: USO2AO                        :      0.000u      0.000s      0.005w    347 calls
| JK: JK                            :      0.000u      0.000s      0.056w    347 calls
| | DFH: compute_JK()               :      0.000u      0.000s      0.055w    347 calls
| | | DFH: Grabbing AOs             :      0.000u      0.000s      0.000w    347 calls
| | | DFH: compute_J                :      0.000u      0.000s      0.024w    347 calls
| | | DFH: compute_K                :      0.000u      0.000s      0.026w    347 calls
| JK: AO2USO                        :      0.000u      0.000s      0.001w    347 calls
HF: Form F                          :      0.000u      0.000s      0.005w    347 calls
HF: Form D                          :      0.000u      0.000s      0.002w    347 calls
HF: DIIS                            :      0.000u      0.000s      2.483w    309 calls
HF: Form C                          :      0.000u      0.000s      0.198w    309 calls
Grad: V T Perturb                   :      0.000u      0.000s      0.026w     38 calls
Grad: S                             :      0.000u      0.000s      0.004w     38 calls
Grad: JK                            :      0.000u      0.000s      2.320w     38 calls
| JKGrad: Amn                       :      0.000u      0.000s      0.450w     38 calls
| | Libint2ERI::Libint2ERI          :      0.000u      0.000s      0.131w     38 calls
| JKGrad: Awmn                      :      0.000u      0.000s      0.000w     38 calls
| JKGrad: AB                        :      0.000u      0.000s      0.270w     38 calls
| | Libint2ERI::Libint2ERI          :      0.000u      0.000s      0.001w     38 calls
| JKGrad: UV                        :      0.000u      0.000s      0.011w     38 calls
| JKGrad: ABx                       :      0.000u      0.000s      0.084w     38 calls
| | Libint2ERI::Libint2ERI          :      0.000u      0.000s      0.002w     38 calls
| JKGrad: Amnx                      :      0.000u      0.000s      0.564w     38 calls
| | Libint2ERI::Libint2ERI          :      0.000u      0.000s      0.166w     38 calls
Grad: XC                            :      0.000u      0.000s      8.206w     38 calls
| Properties                        :      0.000u      0.000s      2.889w  21114 calls
| Functional                        :      0.000u      0.000s      3.953w  21114 calls
| V_xc gradient                     :      0.000u      0.000s      1.264w  21114 calls

**************************************************************************************

Host: WX400847

Timers On : Thu Apr 30 11:22:20 2026
Timers Off: Thu Apr 30 11:25:42 2026

Wall Time:      201.79 seconds

                                                       Time (seconds)
Module                                       User      System        Wall        Calls
V: Grid                             :      0.000u      0.000s      1.860w     56 calls
build grid                          :      0.000u      0.000s      1.133w     56 calls
post-process grid                   :      0.000u      0.000s      0.689w     56 calls
DFH: sparsity prep                  :      0.000u      0.000s      3.808w     56 calls
Libint2ERI::Libint2ERI              :      0.000u      0.000s     10.017w    392 calls
DFH: initialize()                   :      0.000u      0.000s      6.234w     56 calls
DFH: AO Construction                :      0.000u      0.000s      1.986w     56 calls
DFH: AO-Met. Contraction            :      0.000u      0.000s      0.289w     56 calls
HF: Form core H                     :      0.000u      0.000s      0.832w     56 calls
HF: Form S/X                        :      0.000u      0.000s      0.031w     56 calls
HF: Guess                           :      0.000u      0.000s      8.422w     56 calls
SAD Guess                           :      0.000u      0.000s      8.292w     56 calls
HF: Form G                          :      0.000u      0.000s    102.120w    704 calls
RV: Form V                          :      0.000u      0.000s    100.618w    704 calls
Properties                          :      0.000u      0.000s     24.912w 418798 calls
Functional                          :      0.000u      0.000s     76.318w 418798 calls
V_xc                                :      0.000u      0.000s     15.004w 387935 calls
JK: D                               :      0.000u      0.000s      0.006w    704 calls
JK: USO2AO                          :      0.000u      0.000s      0.010w    704 calls
JK: JK                              :      0.000u      0.000s      1.417w    704 calls
DFH: compute_JK()                   :      0.000u      0.000s      1.413w    704 calls
DFH: Grabbing AOs                   :      0.000u      0.000s      0.000w    704 calls
DFH: compute_J                      :      0.000u      0.000s      0.396w    704 calls
DFH: compute_K                      :      0.000u      0.000s      0.761w    704 calls
JK: AO2USO                          :      0.000u      0.000s      0.009w    704 calls
HF: Form F                          :      0.000u      0.000s      0.008w    704 calls
HF: Form D                          :      0.000u      0.000s      0.007w    704 calls
HF: DIIS                            :      0.000u      0.000s      5.112w    648 calls
HF: Form C                          :      0.000u      0.000s      0.509w    648 calls
Grad: V T Perturb                   :      0.000u      0.000s      0.116w     56 calls
Grad: S                             :      0.000u      0.000s      0.027w     56 calls
Grad: JK                            :      0.000u      0.000s     16.341w     56 calls
JKGrad: Amn                         :      0.000u      0.000s      4.795w     56 calls
JKGrad: Awmn                        :      0.000u      0.000s      0.000w     56 calls
JKGrad: AB                          :      0.000u      0.000s      1.024w     56 calls
JKGrad: UV                          :      0.000u      0.000s      0.071w     56 calls
JKGrad: ABx                         :      0.000u      0.000s      0.363w     56 calls
JKGrad: Amnx                        :      0.000u      0.000s      8.469w     56 calls
Grad: XC                            :      0.000u      0.000s     19.795w     56 calls
V_xc gradient                       :      0.000u      0.000s      3.244w  30863 calls

--------------------------------------------------------------------------------------
V: Grid                             :      0.000u      0.000s      1.860w     56 calls
| build grid                        :      0.000u      0.000s      1.133w     56 calls
| post-process grid                 :      0.000u      0.000s      0.689w     56 calls
DFH: sparsity prep                  :      0.000u      0.000s      3.808w     56 calls
| Libint2ERI::Libint2ERI            :      0.000u      0.000s      2.626w     56 calls
DFH: initialize()                   :      0.000u      0.000s      6.234w     56 calls
| Libint2ERI::Libint2ERI            :      0.000u      0.000s      2.518w    112 calls
| DFH: AO Construction              :      0.000u      0.000s      1.986w     56 calls
| DFH: AO-Met. Contraction          :      0.000u      0.000s      0.289w     56 calls
HF: Form core H                     :      0.000u      0.000s      0.832w     56 calls
HF: Form S/X                        :      0.000u      0.000s      0.031w     56 calls
HF: Guess                           :      0.000u      0.000s      8.422w     56 calls
| SAD Guess                         :      0.000u      0.000s      8.292w     56 calls
HF: Form G                          :      0.000u      0.000s    102.120w    704 calls
| RV: Form V                        :      0.000u      0.000s    100.618w    704 calls
| | Properties                      :      0.000u      0.000s     14.081w 387935 calls
| | Functional                      :      0.000u      0.000s     70.751w 387935 calls
| | V_xc                            :      0.000u      0.000s     15.004w 387935 calls
| JK: D                             :      0.000u      0.000s      0.006w    704 calls
| JK: USO2AO                        :      0.000u      0.000s      0.010w    704 calls
| JK: JK                            :      0.000u      0.000s      1.417w    704 calls
| | DFH: compute_JK()               :      0.000u      0.000s      1.413w    704 calls
| | | DFH: Grabbing AOs             :      0.000u      0.000s      0.000w    704 calls
| | | DFH: compute_J                :      0.000u      0.000s      0.396w    704 calls
| | | DFH: compute_K                :      0.000u      0.000s      0.761w    704 calls
| JK: AO2USO                        :      0.000u      0.000s      0.009w    704 calls
HF: Form F                          :      0.000u      0.000s      0.008w    704 calls
HF: Form D                          :      0.000u      0.000s      0.007w    704 calls
HF: DIIS                            :      0.000u      0.000s      5.112w    648 calls
HF: Form C                          :      0.000u      0.000s      0.509w    648 calls
Grad: V T Perturb                   :      0.000u      0.000s      0.116w     56 calls
Grad: S                             :      0.000u      0.000s      0.027w     56 calls
Grad: JK                            :      0.000u      0.000s     16.341w     56 calls
| JKGrad: Amn                       :      0.000u      0.000s      4.795w     56 calls
| | Libint2ERI::Libint2ERI          :      0.000u      0.000s      2.237w     56 calls
| JKGrad: Awmn                      :      0.000u      0.000s      0.000w     56 calls
| JKGrad: AB                        :      0.000u      0.000s      1.024w     56 calls
| | Libint2ERI::Libint2ERI          :      0.000u      0.000s      0.003w     56 calls
| JKGrad: UV                        :      0.000u      0.000s      0.071w     56 calls
[...]
DFH: sparsity prep                  :      0.000u      0.000s      2.800w     40 calls
| Libint2ERI::Libint2ERI            :      0.000u      0.000s      1.967w     40 calls
DFH: initialize()                   :      0.000u      0.000s      4.490w     40 calls
| Libint2ERI::Libint2ERI            :      0.000u      0.000s      1.723w     80 calls
| DFH: AO Construction              :      0.000u      0.000s      1.437w     40 calls
| DFH: AO-Met. Contraction          :      0.000u      0.000s      0.205w     40 calls
HF: Form core H                     :      0.000u      0.000s      0.590w     40 calls
HF: Form S/X                        :      0.000u      0.000s      0.020w     40 calls
HF: Guess                           :      0.000u      0.000s      6.299w     40 calls
| SAD Guess                         :      0.000u      0.000s      6.205w     40 calls
HF: Form G                          :      0.000u      0.000s     69.583w    505 calls
| RV: Form V                        :      0.000u      0.000s     68.533w    505 calls
| | Properties                      :      0.000u      0.000s      9.369w 275088 calls
| | Functional                      :      0.000u      0.000s     48.573w 275088 calls
| | V_xc                            :      0.000u      0.000s     10.061w 275088 calls
| JK: D                             :      0.000u      0.000s      0.004w    505 calls
| JK: USO2AO                        :      0.000u      0.000s      0.009w    505 calls
| JK: JK                            :      0.000u      0.000s      0.980w    505 calls
| | DFH: compute_JK()               :      0.000u      0.000s      0.976w    505 calls
| | | DFH: Grabbing AOs             :      0.000u      0.000s      0.000w    505 calls
| | | DFH: compute_J                :      0.000u      0.000s      0.265w    505 calls
| | | DFH: compute_K                :      0.000u      0.000s      0.523w    505 calls
| JK: AO2USO                        :      0.000u      0.000s      0.009w    505 calls
HF: Form F                          :      0.000u      0.000s      0.005w    505 calls
HF: Form D                          :      0.000u      0.000s      0.004w    505 calls
HF: DIIS                            :      0.000u      0.000s      3.356w    465 calls
HF: Form C                          :      0.000u      0.000s      0.324w    465 calls
Grad: V T Perturb                   :      0.000u      0.000s      0.075w     40 calls
Grad: S                             :      0.000u      0.000s      0.019w     40 calls
Grad: JK                            :      0.000u      0.000s     10.711w     40 calls
| JKGrad: Amn                       :      0.000u      0.000s      3.255w     40 calls
| | Libint2ERI::Libint2ERI          :      0.000u      0.000s      1.501w     40 calls
| JKGrad: Awmn                      :      0.000u      0.000s      0.000w     40 calls
| JKGrad: AB                        :      0.000u      0.000s      0.750w     40 calls
| | Libint2ERI::Libint2ERI          :      0.000u      0.000s      0.003w     40 calls
| JKGrad: UV                        :      0.000u      0.000s      0.055w     40 calls
| JKGrad: ABx                       :      0.000u      0.000s      0.220w     40 calls
| | Libint2ERI::Libint2ERI          :      0.000u      0.000s      0.002w     40 calls
| JKGrad: Amnx                      :      0.000u      0.000s      5.553w     40 calls
| | Libint2ERI::Libint2ERI          :      0.000u      0.000s      1.724w     40 calls
Grad: XC                            :      0.000u      0.000s     13.370w     40 calls
| Properties                        :      0.000u      0.000s      7.258w  21789 calls
| Functional                        :      0.000u      0.000s      3.848w  21789 calls
| V_xc gradient                     :      0.000u      0.000s      2.156w  21789 calls

**************************************************************************************

Host: WX400847

Timers On : Thu Apr 30 11:52:22 2026
Timers Off: Thu Apr 30 11:55:19 2026

Wall Time:      176.08 seconds

                                                       Time (seconds)
Module                                       User      System        Wall        Calls
V: Grid                             :      0.000u      0.000s      3.334w     31 calls
build grid                          :      0.000u      0.000s      2.403w     31 calls
post-process grid                   :      0.000u      0.000s      0.926w     31 calls
DFH: sparsity prep                  :      0.000u      0.000s      0.379w     31 calls
Libint2ERI::Libint2ERI              :      0.000u      0.000s      0.958w    213 calls
DFH: initialize()                   :      0.000u      0.000s      1.696w     31 calls
DFH: AO Construction                :      0.000u      0.000s      0.653w     31 calls
DFH: AO-Met. Contraction            :      0.000u      0.000s      0.154w     31 calls
HF: Form core H                     :      0.000u      0.000s      0.365w     31 calls
HF: Form S/X                        :      0.000u      0.000s      0.019w     31 calls
HF: Guess                           :      0.000u      0.000s      2.667w     31 calls
SAD Guess                           :      0.000u      0.000s      2.591w     31 calls
HF: Form G                          :      0.000u      0.000s    113.350w    394 calls
RV: Form V                          :      0.000u      0.000s    113.172w    395 calls
Properties                          :      0.000u      0.000s     25.048w 436886 calls
Functional                          :      0.000u      0.000s     83.622w 436886 calls
V_xc                                :      0.000u      0.000s     17.778w 406045 calls
JK: D                               :      0.000u      0.000s      0.003w    395 calls
JK: USO2AO                          :      0.000u      0.000s      0.001w    395 calls
JK: JK                              :      0.000u      0.000s      0.600w    395 calls
DFH: compute_JK()                   :      0.000u      0.000s      0.597w    395 calls
DFH: Grabbing AOs                   :      0.000u      0.000s      0.000w    395 calls
DFH: compute_J                      :      0.000u      0.000s      0.216w    395 calls
DFH: compute_K                      :      0.000u      0.000s      0.347w    395 calls
JK: AO2USO                          :      0.000u      0.000s      0.000w    395 calls
HF: Form F                          :      0.000u      0.000s      0.005w    394 calls
HF: Form D                          :      0.000u      0.000s      0.003w    394 calls
HF: DIIS                            :      0.000u      0.000s      2.954w    363 calls
HF: Form C                          :      0.000u      0.000s      0.292w    363 calls
Grad: V T Perturb                   :      0.000u      0.000s      0.055w     30 calls
Grad: S                             :      0.000u      0.000s      0.011w     30 calls
Grad: JK                            :      0.000u      0.000s      4.610w     30 calls
JKGrad: Amn                         :      0.000u      0.000s      1.068w     30 calls
JKGrad: Awmn                        :      0.000u      0.000s      0.000w     30 calls
JKGrad: AB                          :      0.000u      0.000s      0.481w     30 calls
JKGrad: UV                          :      0.000u      0.000s      0.023w     30 calls
JKGrad: ABx                         :      0.000u      0.000s      0.219w     30 calls
JKGrad: Amnx                        :      0.000u      0.000s      2.155w     30 calls
Grad: XC                            :      0.000u      0.000s     18.176w     30 calls
V_xc gradient                       :      0.000u      0.000s      3.914w  30841 calls

--------------------------------------------------------------------------------------
V: Grid                             :      0.000u      0.000s      3.334w     31 calls
| build grid                        :      0.000u      0.000s      2.403w     31 calls
| post-process grid                 :      0.000u      0.000s      0.926w     31 calls
DFH: sparsity prep                  :      0.000u      0.000s      0.379w     31 calls
| Libint2ERI::Libint2ERI            :      0.000u      0.000s      0.274w     31 calls
DFH: initialize()                   :      0.000u      0.000s      1.696w     31 calls
| Libint2ERI::Libint2ERI            :      0.000u      0.000s      0.232w     62 calls
| DFH: AO Construction              :      0.000u      0.000s      0.653w     31 calls
| DFH: AO-Met. Contraction          :      0.000u      0.000s      0.154w     31 calls
HF: Form core H                     :      0.000u      0.000s      0.365w     31 calls
HF: Form S/X                        :      0.000u      0.000s      0.019w     31 calls
HF: Guess                           :      0.000u      0.000s      2.667w     31 calls
| SAD Guess                         :      0.000u      0.000s      2.591w     31 calls
HF: Form G                          :      0.000u      0.000s    113.350w    395 calls
| RV: Form V                        :      0.000u      0.000s    113.172w    395 calls
| | Properties                      :      0.000u      0.000s     16.483w 406045 calls
| | Functional                      :      0.000u      0.000s     78.039w 406045 calls
| | V_xc                            :      0.000u      0.000s     17.778w 406045 calls
| JK: D                             :      0.000u      0.000s      0.003w    395 calls
| JK: USO2AO                        :      0.000u      0.000s      0.001w    395 calls
| JK: JK                            :      0.000u      0.000s      0.600w    395 calls
| | DFH: compute_JK()               :      0.000u      0.000s      0.597w    395 calls
| | | DFH: Grabbing AOs             :      0.000u      0.000s      0.000w    395 calls
| | | DFH: compute_J                :      0.000u      0.000s      0.216w    395 calls
| | | DFH: compute_K                :      0.000u      0.000s      0.347w    395 calls
| JK: AO2USO                        :      0.000u      0.000s      0.000w    395 calls
HF: Form F                          :      0.000u      0.000s      0.005w    394 calls
HF: Form D                          :      0.000u      0.000s      0.003w    394 calls
HF: DIIS                            :      0.000u      0.000s      2.954w    363 calls
HF: Form C                          :      0.000u      0.000s      0.292w    363 calls
Grad: V T Perturb                   :      0.000u      0.000s      0.055w     30 calls
Grad: S                             :      0.000u      0.000s      0.011w     30 calls
Grad: JK                            :      0.000u      0.000s      4.610w     30 calls
| JKGrad: Amn                       :      0.000u      0.000s      1.068w     30 calls
| | Libint2ERI::Libint2ERI          :      0.000u      0.000s      0.217w     30 calls
| JKGrad: Awmn                      :      0.000u      0.000s      0.000w     30 calls
| JKGrad: AB                        :      0.000u      0.000s      0.481w     30 calls
| | Libint2ERI::Libint2ERI          :      0.000u      0.000s      0.002w     30 calls
| JKGrad: UV                        :      0.000u      0.000s      0.023w     30 calls
| JKGrad: ABx                       :      0.000u      0.000s      0.219w     30 calls
| | Libint2ERI::Libint2ERI          :      0.000u      0.000s      0.002w     30 calls
| JKGrad: Amnx                      :      0.000u      0.000s      2.155w     30 calls
| | Libint2ERI::Libint2ERI          :      0.000u      0.000s      0.232w     30 calls
Grad: XC                            :      0.000u      0.000s     18.176w     30 calls
| Properties                        :      0.000u      0.000s      8.565w  30841 calls
| Functional                        :      0.000u      0.000s      5.584w  30841 calls
| V_xc gradient                     :      0.000u      0.000s      3.914w  30841 calls

**************************************************************************************

Host: WX400847

Timers On : Thu Apr 30 11:55:40 2026
Timers Off: Thu Apr 30 11:57:00 2026

Wall Time:       79.81 seconds

                                                       Time (seconds)
Module                                       User      System        Wall        Calls
V: Grid                             :      0.000u      0.000s      1.291w     37 calls
build grid                          :      0.000u      0.000s      0.755w     37 calls
post-process grid                   :      0.000u      0.000s      0.531w     37 calls
DFH: sparsity prep                  :      0.000u      0.000s      0.261w     37 calls
Libint2ERI::Libint2ERI              :      0.000u      0.000s      0.582w    259 calls
DFH: initialize()                   :      0.000u      0.000s      0.752w     37 calls
DFH: AO Construction                :      0.000u      0.000s      0.091w     37 calls
DFH: AO-Met. Contraction            :      0.000u      0.000s      0.014w     37 calls
HF: Form core H                     :      0.000u      0.000s      0.344w     37 calls
HF: Form S/X                        :      0.000u      0.000s      0.013w     37 calls
HF: Guess                           :      0.000u      0.000s      1.729w     37 calls
SAD Guess                           :      0.000u      0.000s      1.641w     37 calls
HF: Form G                          :      0.000u      0.000s     42.197w    335 calls
RV: Form V                          :      0.000u      0.000s     42.101w    335 calls
Properties                          :      0.000u      0.000s      6.735w 207147 calls
Functional                          :      0.000u      0.000s     37.583w 207147 calls
V_xc                                :      0.000u      0.000s      3.882w 186543 calls
JK: D                               :      0.000u      0.000s      0.002w    335 calls
JK: USO2AO                          :      0.000u      0.000s      0.004w    335 calls
JK: JK                              :      0.000u      0.000s      0.053w    335 calls
DFH: compute_JK()                   :      0.000u      0.000s      0.052w    335 calls
DFH: Grabbing AOs                   :      0.000u      0.000s      0.000w    335 calls
DFH: compute_J                      :      0.000u      0.000s      0.023w    335 calls
DFH: compute_K                      :      0.000u      0.000s      0.025w    335 calls
JK: AO2USO                          :      0.000u      0.000s      0.002w    335 calls
HF: Form F                          :      0.000u      0.000s      0.003w    335 calls
HF: Form D                          :      0.000u      0.000s      0.002w    335 calls
HF: DIIS                            :      0.000u      0.000s      2.465w    298 calls
HF: Form C                          :      0.000u      0.000s      0.194w    298 calls
Grad: V T Perturb                   :      0.000u      0.000s      0.015w     37 calls
Grad: S                             :      0.000u      0.000s      0.004w     37 calls
Grad: JK                            :      0.000u      0.000s      2.128w     37 calls
JKGrad: Amn                         :      0.000u      0.000s      0.436w     37 calls
JKGrad: Awmn                        :      0.000u      0.000s      0.000w     37 calls
JKGrad: AB                          :      0.000u      0.000s      0.266w     37 calls
JKGrad: UV                          :      0.000u      0.000s      0.010w     37 calls
JKGrad: ABx                         :      0.000u      0.000s      0.101w     37 calls
JKGrad: Amnx                        :      0.000u      0.000s      0.539w     37 calls
Grad: XC                            :      0.000u      0.000s      7.662w     37 calls
V_xc gradient                       :      0.000u      0.000s      1.147w  20604 calls

--------------------------------------------------------------------------------------
V: Grid                             :      0.000u      0.000s      1.291w     37 calls
| build grid                        :      0.000u      0.000s      0.755w     37 calls
| post-process grid                 :      0.000u      0.000s      0.531w     37 calls
DFH: sparsity prep                  :      0.000u      0.000s      0.261w     37 calls
| Libint2ERI::Libint2ERI            :      0.000u      0.000s      0.165w     37 calls
DFH: initialize()                   :      0.000u      0.000s      0.752w     37 calls
| Libint2ERI::Libint2ERI            :      0.000u      0.000s      0.123w     74 calls
| DFH: AO Construction              :      0.000u      0.000s      0.091w     37 calls
| DFH: AO-Met. Contraction          :      0.000u      0.000s      0.014w     37 calls
HF: Form core H                     :      0.000u      0.000s      0.344w     37 calls
HF: Form S/X                        :      0.000u      0.000s      0.013w     37 calls
HF: Guess                           :      0.000u      0.000s      1.729w     37 calls
| SAD Guess                         :      0.000u      0.000s      1.641w     37 calls
HF: Form G                          :      0.000u      0.000s     42.197w    335 calls
| RV: Form V                        :      0.000u      0.000s     42.101w    335 calls
| | Properties                      :      0.000u      0.000s      3.950w 186543 calls
| | Functional                      :      0.000u      0.000s     33.939w 186543 calls
| | V_xc                            :      0.000u      0.000s      3.882w 186543 calls
| JK: D                             :      0.000u      0.000s      0.002w    335 calls
| JK: USO2AO                        :      0.000u      0.000s      0.004w    335 calls
| JK: JK                            :      0.000u      0.000s      0.053w    335 calls
| | DFH: compute_JK()               :      0.000u      0.000s      0.052w    335 calls
| | | DFH: Grabbing AOs             :      0.000u      0.000s      0.000w    335 calls
| | | DFH: compute_J                :      0.000u      0.000s      0.023w    335 calls
| | | DFH: compute_K                :      0.000u      0.000s      0.025w    335 calls
| JK: AO2USO                        :      0.000u      0.000s      0.002w    335 calls
HF: Form F                          :      0.000u      0.000s      0.003w    335 calls
HF: Form D                          :      0.000u      0.000s      0.002w    335 calls
HF: DIIS                            :      0.000u      0.000s      2.465w    298 calls
HF: Form C                          :      0.000u      0.000s      0.194w    298 calls
Grad: V T Perturb                   :      0.000u      0.000s      0.015w     37 calls
Grad: S                             :      0.000u      0.000s      0.004w     37 calls
Grad: JK                            :      0.000u      0.000s      2.128w     37 calls
| JKGrad: Amn                       :      0.000u      0.000s      0.436w     37 calls
| | Libint2ERI::Libint2ERI          :      0.000u      0.000s      0.126w     37 calls
| JKGrad: Awmn                      :      0.000u      0.000s      0.000w     37 calls
| JKGrad: AB                        :      0.000u      0.000s      0.266w     37 calls
| | Libint2ERI::Libint2ERI          :      0.000u      0.000s      0.001w     37 calls
| JKGrad: UV                        :      0.000u      0.000s      0.010w     37 calls
| JKGrad: ABx                       :      0.000u      0.000s      0.101w     37 calls
| | Libint2ERI::Libint2ERI          :      0.000u      0.000s      0.002w     37 calls
| JKGrad: Amnx                      :      0.000u      0.000s      0.539w     37 calls
| | Libint2ERI::Libint2ERI          :      0.000u      0.000s      0.165w     37 calls
Grad: XC                            :      0.000u      0.000s      7.662w     37 calls
| Properties                        :      0.000u      0.000s      2.785w  20604 calls
| Functional                        :      0.000u      0.000s      3.644w  20604 calls
| V_xc gradient                     :      0.000u      0.000s      1.147w  20604 calls

**************************************************************************************
